# vtk DataFile Version 2.0
mesh, Created by Gmsh
ASCII
DATASET UNSTRUCTURED_GRID
POINTS 202 double
0 -0.05 0 
0 0.05 0 
1 0.05 0 
1 -0.05 0 
0.01 0.05 0 
0.02 0.05 0 
0.03 0.05 0 
0.04 0.05 0 
0.05 0.05 0 
0.06 0.05 0 
0.07 0.05 0 
0.08 0.05 0 
0.09 0.05 0 
0.1 0.05 0 
0.11 0.05 0 
0.12 0.05 0 
0.13 0.05 0 
0.14 0.05 0 
0.15 0.05 0 
0.16 0.05 0 
0.17 0.05 0 
0.18 0.05 0 
0.19 0.05 0 
0.2 0.05 0 
0.21 0.05 0 
0.22 0.05 0 
0.23 0.05 0 
0.24 0.05 0 
0.25 0.05 0 
0.26 0.05 0 
0.27 0.05 0 
0.28 0.05 0 
0.29 0.05 0 
0.3 0.05 0 
0.31 0.05 0 
0.32 0.05 0 
0.33 0.05 0 
0.34 0.05 0 
0.35 0.05 0 
0.36 0.05 0 
0.37 0.05 0 
0.38 0.05 0 
0.39 0.05 0 
0.4 0.05 0 
0.41 0.05 0 
0.42 0.05 0 
0.43 0.05 0 
0.44 0.05 0 
0.45 0.05 0 
0.46 0.05 0 
0.47 0.05 0 
0.48 0.05 0 
0.49 0.05 0 
0.5 0.05 0 
0.51 0.05 0 
0.52 0.05 0 
0.53 0.05 0 
0.54 0.05 0 
0.55 0.05 0 
0.56 0.05 0 
0.57 0.05 0 
0.58 0.05 0 
0.59 0.05 0 
0.6 0.05 0 
0.61 0.05 0 
0.62 0.05 0 
0.63 0.05 0 
0.64 0.05 0 
0.65 0.05 0 
0.66 0.05 0 
0.67 0.05 0 
0.68 0.05 0 
0.69 0.05 0 
0.7 0.05 0 
0.71 0.05 0 
0.72 0.05 0 
0.73 0.05 0 
0.74 0.05 0 
0.75 0.05 0 
0.76 0.05 0 
0.77 0.05 0 
0.78 0.05 0 
0.79 0.05 0 
0.8 0.05 0 
0.81 0.05 0 
0.82 0.05 0 
0.83 0.05 0 
0.84 0.05 0 
0.85 0.05 0 
0.86 0.05 0 
0.87 0.05 0 
0.88 0.05 0 
0.89 0.05 0 
0.9 0.05 0 
0.91 0.05 0 
0.92 0.05 0 
0.93 0.05 0 
0.94 0.05 0 
0.95 0.05 0 
0.96 0.05 0 
0.97 0.05 0 
0.98 0.05 0 
0.99 0.05 0 
0.99 -0.05 0 
0.98 -0.05 0 
0.97 -0.05 0 
0.96 -0.05 0 
0.95 -0.05 0 
0.94 -0.05 0 
0.93 -0.05 0 
0.92 -0.05 0 
0.91 -0.05 0 
0.9 -0.05 0 
0.89 -0.05 0 
0.88 -0.05 0 
0.87 -0.05 0 
0.86 -0.05 0 
0.85 -0.05 0 
0.84 -0.05 0 
0.83 -0.05 0 
0.82 -0.05 0 
0.81 -0.05 0 
0.8 -0.05 0 
0.79 -0.05 0 
0.78 -0.05 0 
0.77 -0.05 0 
0.76 -0.05 0 
0.75 -0.05 0 
0.74 -0.05 0 
0.73 -0.05 0 
0.72 -0.05 0 
0.71 -0.05 0 
0.7 -0.05 0 
0.69 -0.05 0 
0.68 -0.05 0 
0.67 -0.05 0 
0.66 -0.05 0 
0.65 -0.05 0 
0.64 -0.05 0 
0.63 -0.05 0 
0.62 -0.05 0 
0.61 -0.05 0 
0.6 -0.05 0 
0.59 -0.05 0 
0.58 -0.05 0 
0.57 -0.05 0 
0.56 -0.05 0 
0.55 -0.05 0 
0.54 -0.05 0 
0.53 -0.05 0 
0.52 -0.05 0 
0.51 -0.05 0 
0.5 -0.05 0 
0.49 -0.05 0 
0.48 -0.05 0 
0.47 -0.05 0 
0.46 -0.05 0 
0.45 -0.05 0 
0.44 -0.05 0 
0.43 -0.05 0 
0.42 -0.05 0 
0.41 -0.05 0 
0.4 -0.05 0 
0.39 -0.05 0 
0.38 -0.05 0 
0.37 -0.05 0 
0.36 -0.05 0 
0.35 -0.05 0 
0.34 -0.05 0 
0.33 -0.05 0 
0.32 -0.05 0 
0.31 -0.05 0 
0.3 -0.05 0 
0.29 -0.05 0 
0.28 -0.05 0 
0.27 -0.05 0 
0.26 -0.05 0 
0.25 -0.05 0 
0.24 -0.05 0 
0.23 -0.05 0 
0.22 -0.05 0 
0.21 -0.05 0 
0.2 -0.05 0 
0.19 -0.05 0 
0.18 -0.05 0 
0.17 -0.05 0 
0.16 -0.05 0 
0.15 -0.05 0 
0.14 -0.05 0 
0.13 -0.05 0 
0.12 -0.05 0 
0.11 -0.05 0 
0.1 -0.05 0 
0.09 -0.05 0 
0.08 -0.05 0 
0.07 -0.05 0 
0.06 -0.05 0 
0.05 -0.05 0 
0.04 -0.05 0 
0.03 -0.05 0 
0.02 -0.05 0 
0.01 -0.05 0 

CELLS 100 500
4 1 4 201 0 
4 4 5 200 201 
4 5 6 199 200 
4 6 7 198 199 
4 7 8 197 198 
4 8 9 196 197 
4 9 10 195 196 
4 10 11 194 195 
4 11 12 193 194 
4 12 13 192 193 
4 13 14 191 192 
4 14 15 190 191 
4 15 16 189 190 
4 16 17 188 189 
4 17 18 187 188 
4 18 19 186 187 
4 19 20 185 186 
4 20 21 184 185 
4 21 22 183 184 
4 22 23 182 183 
4 23 24 181 182 
4 24 25 180 181 
4 25 26 179 180 
4 26 27 178 179 
4 27 28 177 178 
4 28 29 176 177 
4 29 30 175 176 
4 30 31 174 175 
4 31 32 173 174 
4 32 33 172 173 
4 33 34 171 172 
4 34 35 170 171 
4 35 36 169 170 
4 36 37 168 169 
4 37 38 167 168 
4 38 39 166 167 
4 39 40 165 166 
4 40 41 164 165 
4 41 42 163 164 
4 42 43 162 163 
4 43 44 161 162 
4 44 45 160 161 
4 45 46 159 160 
4 46 47 158 159 
4 47 48 157 158 
4 48 49 156 157 
4 49 50 155 156 
4 50 51 154 155 
4 51 52 153 154 
4 52 53 152 153 
4 53 54 151 152 
4 54 55 150 151 
4 55 56 149 150 
4 56 57 148 149 
4 57 58 147 148 
4 58 59 146 147 
4 59 60 145 146 
4 60 61 144 145 
4 61 62 143 144 
4 62 63 142 143 
4 63 64 141 142 
4 64 65 140 141 
4 65 66 139 140 
4 66 67 138 139 
4 67 68 137 138 
4 68 69 136 137 
4 69 70 135 136 
4 70 71 134 135 
4 71 72 133 134 
4 72 73 132 133 
4 73 74 131 132 
4 74 75 130 131 
4 75 76 129 130 
4 76 77 128 129 
4 77 78 127 128 
4 78 79 126 127 
4 79 80 125 126 
4 80 81 124 125 
4 81 82 123 124 
4 82 83 122 123 
4 83 84 121 122 
4 84 85 120 121 
4 85 86 119 120 
4 86 87 118 119 
4 87 88 117 118 
4 88 89 116 117 
4 89 90 115 116 
4 90 91 114 115 
4 91 92 113 114 
4 92 93 112 113 
4 93 94 111 112 
4 94 95 110 111 
4 95 96 109 110 
4 96 97 108 109 
4 97 98 107 108 
4 98 99 106 107 
4 99 100 105 106 
4 100 101 104 105 
4 101 102 103 104 
4 102 2 3 103 

CELL_TYPES 100
9
9
9
9
9
9
9
9
9
9
9
9
9
9
9
9
9
9
9
9
9
9
9
9
9
9
9
9
9
9
9
9
9
9
9
9
9
9
9
9
9
9
9
9
9
9
9
9
9
9
9
9
9
9
9
9
9
9
9
9
9
9
9
9
9
9
9
9
9
9
9
9
9
9
9
9
9
9
9
9
9
9
9
9
9
9
9
9
9
9
9
9
9
9
9
9
9
9
9
9

POINT_DATA 202
SCALARS rho double
LOOKUP_TABLE default
1
1
0.125
0.125
1
1
1
1
1
1
1
1
1
1
1
1
1
1
1
1
1
1
1
1
1
1
1
1
1
1
1
1
1
1
1
1
1
1
1
1
1
1
1
1
1
1
1
1
1
1
1
1
1
0.5625
0.125
0.125
0.125
0.125
0.125
0.125
0.125
0.125
0.125
0.125
0.125
0.125
0.125
0.125
0.125
0.125
0.125
0.125
0.125
0.125
0.125
0.125
0.125
0.125
0.125
0.125
0.125
0.125
0.125
0.125
0.125
0.125
0.125
0.125
0.125
0.125
0.125
0.125
0.125
0.125
0.125
0.125
0.125
0.125
0.125
0.125
0.125
0.125
0.125
0.125
0.125
0.125
0.125
0.125
0.125
0.125
0.125
0.125
0.125
0.125
0.125
0.125
0.125
0.125
0.125
0.125
0.125
0.125
0.125
0.125
0.125
0.125
0.125
0.125
0.125
0.125
0.125
0.125
0.125
0.125
0.125
0.125
0.125
0.125
0.125
0.125
0.125
0.125
0.125
0.125
0.125
0.125
0.125
0.125
0.125
0.125
0.125
0.125
0.5625
1
1
1
1
1
1
1
1
1
1
1
1
1
1
1
1
1
1
1
1
1
1
1
1
1
1
1
1
1
1
1
1
1
1
1
1
1
1
1
1
1
1
1
1
1
1
1
1
1

VECTORS U double
0 0 0
0 0 0
0 0 0
0 0 0
0 0 0
0 0 0
0 0 0
0 0 0
0 0 0
0 0 0
0 0 0
0 0 0
0 0 0
0 0 0
0 0 0
0 0 0
0 0 0
0 0 0
0 0 0
0 0 0
0 0 0
0 0 0
0 0 0
0 0 0
0 0 0
0 0 0
0 0 0
0 0 0
0 0 0
0 0 0
0 0 0
0 0 0
0 0 0
0 0 0
0 0 0
0 0 0
0 0 0
0 0 0
0 0 0
0 0 0
0 0 0
0 0 0
0 0 0
0 0 0
0 0 0
0 0 0
0 0 0
0 0 0
0 0 0
0 0 0
0 0 0
0 0 0
0 0 0
0 0 0
0 0 0
0 0 0
0 0 0
0 0 0
0 0 0
0 0 0
0 0 0
0 0 0
0 0 0
0 0 0
0 0 0
0 0 0
0 0 0
0 0 0
0 0 0
0 0 0
0 0 0
0 0 0
0 0 0
0 0 0
0 0 0
0 0 0
0 0 0
0 0 0
0 0 0
0 0 0
0 0 0
0 0 0
0 0 0
0 0 0
0 0 0
0 0 0
0 0 0
0 0 0
0 0 0
0 0 0
0 0 0
0 0 0
0 0 0
0 0 0
0 0 0
0 0 0
0 0 0
0 0 0
0 0 0
0 0 0
0 0 0
0 0 0
0 0 0
0 0 0
0 0 0
0 0 0
0 0 0
0 0 0
0 0 0
0 0 0
0 0 0
0 0 0
0 0 0
0 0 0
0 0 0
0 0 0
0 0 0
0 0 0
0 0 0
0 0 0
0 0 0
0 0 0
0 0 0
0 0 0
0 0 0
0 0 0
0 0 0
0 0 0
0 0 0
0 0 0
0 0 0
0 0 0
0 0 0
0 0 0
0 0 0
0 0 0
0 0 0
0 0 0
0 0 0
0 0 0
0 0 0
0 0 0
0 0 0
0 0 0
0 0 0
0 0 0
0 0 0
0 0 0
0 0 0
0 0 0
0 0 0
0 0 0
0 0 0
0 0 0
0 0 0
0 0 0
0 0 0
0 0 0
0 0 0
0 0 0
0 0 0
0 0 0
0 0 0
0 0 0
0 0 0
0 0 0
0 0 0
0 0 0
0 0 0
0 0 0
0 0 0
0 0 0
0 0 0
0 0 0
0 0 0
0 0 0
0 0 0
0 0 0
0 0 0
0 0 0
0 0 0
0 0 0
0 0 0
0 0 0
0 0 0
0 0 0
0 0 0
0 0 0
0 0 0
0 0 0
0 0 0
0 0 0
0 0 0
0 0 0
0 0 0
0 0 0
0 0 0
0 0 0
0 0 0
0 0 0
0 0 0
0 0 0

SCALARS p double
LOOKUP_TABLE default
1
1
0.1
0.1
1
1
1
1
1
1
1
1
1
1
1
1
1
1
1
1
1
1
1
1
1
1
1
1
1
1
1
1
1
1
1
1
1
1
1
1
1
1
1
1
1
1
1
1
1
1
1
1
1
0.55
0.1
0.1
0.1
0.1
0.1
0.1
0.1
0.1
0.1
0.1
0.1
0.1
0.1
0.1
0.1
0.1
0.1
0.1
0.1
0.1
0.1
0.1
0.1
0.1
0.1
0.1
0.1
0.1
0.1
0.1
0.1
0.1
0.1
0.1
0.1
0.1
0.1
0.1
0.1
0.1
0.1
0.1
0.1
0.1
0.1
0.1
0.1
0.1
0.1
0.1
0.1
0.1
0.1
0.1
0.1
0.1
0.1
0.1
0.1
0.1
0.1
0.1
0.1
0.1
0.1
0.1
0.1
0.1
0.1
0.1
0.1
0.1
0.1
0.1
0.1
0.1
0.1
0.1
0.1
0.1
0.1
0.1
0.1
0.1
0.1
0.1
0.1
0.1
0.1
0.1
0.1
0.1
0.1
0.1
0.1
0.1
0.1
0.1
0.55
1
1
1
1
1
1
1
1
1
1
1
1
1
1
1
1
1
1
1
1
1
1
1
1
1
1
1
1
1
1
1
1
1
1
1
1
1
1
1
1
1
1
1
1
1
1
1
1
1


CELL_DATA 100
SCALARS rho double
LOOKUP_TABLE default
1
1
1
1
1
1
1
1
1
1
1
1
1
1
1
1
1
1
1
1
1
1
1
1
1
1
1
1
1
1
1
1
1
1
1
1
1
1
1
1
1
1
1
1
1
1
1
1
1
1
0.125
0.125
0.125
0.125
0.125
0.125
0.125
0.125
0.125
0.125
0.125
0.125
0.125
0.125
0.125
0.125
0.125
0.125
0.125
0.125
0.125
0.125
0.125
0.125
0.125
0.125
0.125
0.125
0.125
0.125
0.125
0.125
0.125
0.125
0.125
0.125
0.125
0.125
0.125
0.125
0.125
0.125
0.125
0.125
0.125
0.125
0.125
0.125
0.125
0.125

VECTORS U double
0 0 0
0 0 0
0 0 0
0 0 0
0 0 0
0 0 0
0 0 0
0 0 0
0 0 0
0 0 0
0 0 0
0 0 0
0 0 0
0 0 0
0 0 0
0 0 0
0 0 0
0 0 0
0 0 0
0 0 0
0 0 0
0 0 0
0 0 0
0 0 0
0 0 0
0 0 0
0 0 0
0 0 0
0 0 0
0 0 0
0 0 0
0 0 0
0 0 0
0 0 0
0 0 0
0 0 0
0 0 0
0 0 0
0 0 0
0 0 0
0 0 0
0 0 0
0 0 0
0 0 0
0 0 0
0 0 0
0 0 0
0 0 0
0 0 0
0 0 0
0 0 0
0 0 0
0 0 0
0 0 0
0 0 0
0 0 0
0 0 0
0 0 0
0 0 0
0 0 0
0 0 0
0 0 0
0 0 0
0 0 0
0 0 0
0 0 0
0 0 0
0 0 0
0 0 0
0 0 0
0 0 0
0 0 0
0 0 0
0 0 0
0 0 0
0 0 0
0 0 0
0 0 0
0 0 0
0 0 0
0 0 0
0 0 0
0 0 0
0 0 0
0 0 0
0 0 0
0 0 0
0 0 0
0 0 0
0 0 0
0 0 0
0 0 0
0 0 0
0 0 0
0 0 0
0 0 0
0 0 0
0 0 0
0 0 0
0 0 0

SCALARS p double
LOOKUP_TABLE default
1
1
1
1
1
1
1
1
1
1
1
1
1
1
1
1
1
1
1
1
1
1
1
1
1
1
1
1
1
1
1
1
1
1
1
1
1
1
1
1
1
1
1
1
1
1
1
1
1
1
0.1
0.1
0.1
0.1
0.1
0.1
0.1
0.1
0.1
0.1
0.1
0.1
0.1
0.1
0.1
0.1
0.1
0.1
0.1
0.1
0.1
0.1
0.1
0.1
0.1
0.1
0.1
0.1
0.1
0.1
0.1
0.1
0.1
0.1
0.1
0.1
0.1
0.1
0.1
0.1
0.1
0.1
0.1
0.1
0.1
0.1
0.1
0.1
0.1
0.1

